# vtk DataFile Version 3.0
vtk hpz_33.vtk                                                                                                                                                                                              
ASCII
DATASET UNSTRUCTURED_GRID
POINTS    6480 float
0.1953125E+00  0.0000000E+00   0.0 
0.1285670E+00  0.6219324E-01   0.0 
0.9765625E-01  0.0000000E+00   0.0 
0.3515625E-01  0.9385918E+00   0.0 
0.7031250E-01  0.8750000E+00   0.0 
0.1054688E+00  0.9465341E+00   0.0 
0.3193067E+00  0.8240791E+00   0.0 
0.3518190E+00  0.7721697E+00   0.0 
0.3918587E+00  0.8115262E+00   0.0 
0.3906250E+00  0.0000000E+00   0.0 
0.3596911E+00  0.7851854E-01   0.0 
0.3417969E+00  0.2611600E-01   0.0 
0.5551572E+00  0.1298320E+00   0.0 
0.5440331E+00  0.5150191E-01   0.0 
0.6019701E+00  0.1063890E+00   0.0 
0.1788686E+00  0.7770700E+00   0.0 
0.1995474E+00  0.8350512E+00   0.0 
0.1266868E+00  0.8283587E+00   0.0 
0.0000000E+00  0.8750000E+00   0.0 
0.0000000E+00  0.8125000E+00   0.0 
0.6684009E+00  0.6952330E-01   0.0 
0.7324219E+00  0.3844880E-01   0.0 
0.7324219E+00  0.1005978E+00   0.0 
0.4087071E+00  0.7398499E+00   0.0 
0.3340164E+00  0.7189234E+00   0.0 
0.4882812E+00  0.0000000E+00   0.0 
0.5859375E+00  0.0000000E+00   0.0 
0.6347656E+00  0.0000000E+00   0.0 
0.6835938E+00  0.0000000E+00   0.0 
0.4394531E+00  0.4377977E-01   0.0 
0.4232114E+00  0.1110136E+00   0.0 
0.7963900E+00  0.6945612E-01   0.0 
0.3418761E+00  0.1531404E+00   0.0 
0.1171875E+01  0.0000000E+00   0.0 
0.1135733E+01  0.5256048E-01   0.0 
0.1074219E+01  0.0000000E+00   0.0 
0.2298834E+00  0.8886158E+00   0.0 
0.2664456E+00  0.9392909E+00   0.0 
0.1757812E+00  0.9521065E+00   0.0 
0.1232878E+01  0.1324276E+00   0.0 
0.1156171E+01  0.1129853E+00   0.0 
0.1206283E+01  0.6236669E-01   0.0 
0.1486077E+00  0.8992732E+00   0.0 
0.9149045E+00  0.5863587E-01   0.0 
0.8603255E+00  0.1005306E+00   0.0 
0.8472461E+00  0.4613077E-01   0.0 
0.8789062E+00  0.0000000E+00   0.0 
0.9765625E+00  0.0000000E+00   0.0 
0.9205898E+00  0.1225417E+00   0.0 
0.9782787E+00  0.8520363E-01   0.0 
0.9765625E+00  0.1539000E+00   0.0 
0.1406250E+00  0.1000000E+01   0.0 
0.2929688E+00  0.5324258E-01   0.0 
0.2413513E+00  0.9136225E-01   0.0 
0.1977464E+00  0.5605450E-01   0.0 
0.1481727E+01  0.7017805E-01   0.0 
0.1534999E+01  0.1188827E+00   0.0 
0.1471789E+01  0.1416710E+00   0.0 
0.2908342E+00  0.8817587E+00   0.0 
0.1562500E+01  0.0000000E+00   0.0 
0.1611328E+01  0.5460320E-01   0.0 
0.1538086E+01  0.5347286E-01   0.0 
0.1953125E+01  0.0000000E+00   0.0 
0.2034708E+01  0.6117127E-01   0.0 
0.1959365E+01  0.7696672E-01   0.0 
0.3325911E+00  0.9365753E+00   0.0 
0.2812500E+00  0.1000000E+01   0.0 
0.3901637E+00  0.9500850E+00   0.0 
0.3515625E+00  0.1000000E+01   0.0 
0.2343750E+01  0.0000000E+00   0.0 
0.2306959E+01  0.7485182E-01   0.0 
0.2294922E+01  0.0000000E+00   0.0 
0.2109375E+00  0.1000000E+01   0.0 
0.1904297E+01  0.4269481E-01   0.0 
0.2358292E+01  0.1126326E+00   0.0 
0.2272369E+01  0.1283877E+00   0.0 
0.2441406E+01  0.0000000E+00   0.0 
0.2490234E+01  0.0000000E+00   0.0 
0.2469149E+01  0.4777283E-01   0.0 
0.2685547E+01  0.3269424E-01   0.0 
0.2734375E+01  0.0000000E+00   0.0 
0.2731021E+01  0.6991301E-01   0.0 
0.2169773E+01  0.6357558E-01   0.0 
0.2161472E+01  0.1301198E+00   0.0 
0.2103570E+01  0.5288963E-01   0.0 
0.2929688E+01  0.0000000E+00   0.0 
0.2885416E+01  0.3530637E-01   0.0 
0.2832031E+01  0.0000000E+00   0.0 
0.4116416E+00  0.8688152E+00   0.0 
0.4662632E+00  0.8434226E+00   0.0 
0.2795695E+01  0.9667685E-01   0.0 
0.2777644E+01  0.3711300E-01   0.0 
0.2882204E+01  0.1784115E+00   0.0 
0.2883909E+01  0.9191238E-01   0.0 
0.2929688E+01  0.1368420E+00   0.0 
0.3125000E+01  0.0000000E+00   0.0 
0.3090199E+01  0.5326048E-01   0.0 
0.3027344E+01  0.0000000E+00   0.0 
0.4416710E+00  0.9210315E+00   0.0 
0.4218750E+00  0.1000000E+01   0.0 
0.2587891E+01  0.3345754E-01   0.0 
0.2582904E+01  0.9309447E-01   0.0 
0.2517733E+01  0.6691507E-01   0.0 
0.3515625E+00  0.8731507E+00   0.0 
0.1371130E+01  0.6300450E-01   0.0 
0.1335051E+01  0.9882083E-01   0.0 
0.1318359E+01  0.2835795E-01   0.0 
0.2945493E+01  0.6522850E-01   0.0 
0.1920728E+00  0.1631227E+00   0.0 
0.1254261E+00  0.1947479E+00   0.0 
0.1279195E+00  0.1363292E+00   0.0 
0.3527780E-01  0.6250000E-01   0.0 
0.2972611E+00  0.1130620E+00   0.0 
0.2468547E+00  0.1552933E+00   0.0 
0.1251033E+01  0.2053361E+00   0.0 
0.1294424E+01  0.1558169E+00   0.0 
0.1337777E+01  0.2053700E+00   0.0 
0.1085904E+01  0.1493811E+00   0.0 
0.1178977E+01  0.1840489E+00   0.0 
0.1411907E+01  0.1111951E+00   0.0 
0.1427761E+01  0.4604107E-01   0.0 
0.1357345E+01  0.1445097E+00   0.0 
0.1414468E+01  0.1767280E+00   0.0 
0.1289256E+01  0.7674565E-01   0.0 
0.8269451E+00  0.2088724E+00   0.0 
0.8045244E+00  0.1340302E+00   0.0 
0.8662801E+00  0.1736737E+00   0.0 
0.3124836E+00  0.2656141E+00   0.0 
0.2562304E+00  0.2362062E+00   0.0 
0.3029741E+00  0.1987159E+00   0.0 
0.1953125E+00  0.2183663E+00   0.0 
0.4936256E+00  0.1531404E+00   0.0 
0.4177509E+00  0.1799654E+00   0.0 
0.4882812E+00  0.8755955E-01   0.0 
0.8634439E+00  0.2470040E+00   0.0 
0.7376042E+00  0.2283614E+00   0.0 
0.6910187E+00  0.2035417E+00   0.0 
0.7289394E+00  0.1589951E+00   0.0 
0.1164002E+01  0.2550923E+00   0.0 
0.1232821E+01  0.2782304E+00   0.0 
0.1029565E+01  0.1208545E+00   0.0 
0.1108421E+01  0.2083799E+00   0.0 
0.7203038E+00  0.2782304E+00   0.0 
0.6425558E+00  0.2656294E+00   0.0 
0.1033365E+01  0.2032285E+00   0.0 
0.1464844E+01  0.2187213E+00   0.0 
0.2148438E+01  0.0000000E+00   0.0 
0.1766374E+01  0.5782701E-01   0.0 
0.1721201E+01  0.1462435E+00   0.0 
0.1708984E+01  0.4670364E-01   0.0 
0.1855469E+01  0.0000000E+00   0.0 
0.1743917E+01  0.2121621E+00   0.0 
0.1683684E+01  0.2254209E+00   0.0 
0.2216985E+01  0.1334183E+00   0.0 
0.2246094E+01  0.5593049E-01   0.0 
0.2091078E+01  0.1585329E+00   0.0 
0.2070061E+01  0.1136157E+00   0.0 
0.2626389E+01  0.1323600E+00   0.0 
0.2566363E+01  0.1907027E+00   0.0 
0.2539062E+01  0.1338301E+00   0.0 
0.2406399E+01  0.1470630E+00   0.0 
0.2423697E+01  0.7348262E-01   0.0 
0.2464692E+01  0.1369863E+00   0.0 
0.2755467E+01  0.1354987E+00   0.0 
0.2684464E+01  0.1246147E+00   0.0 
0.2497972E+01  0.2035697E+00   0.0 
0.2338159E+01  0.1685378E+00   0.0 
0.2143686E+01  0.2132591E+00   0.0 
0.1831568E+01  0.2882984E+00   0.0 
0.1873405E+01  0.3196010E+00   0.0 
0.1827327E+01  0.3756496E+00   0.0 
0.1899523E+01  0.1563727E+00   0.0 
0.1810929E+01  0.1734664E+00   0.0 
0.1852246E+01  0.1213344E+00   0.0 
0.1906989E+01  0.9974704E-01   0.0 
0.1960565E+01  0.1401230E+00   0.0 
0.2290046E+01  0.2034072E+00   0.0 
0.2203468E+01  0.1873619E+00   0.0 
0.2836396E+01  0.1350031E+00   0.0 
0.2787649E+01  0.1996061E+00   0.0 
0.2648320E+01  0.1866901E+00   0.0 
0.2609809E+01  0.2364441E+00   0.0 
0.3053941E+01  0.1702323E+00   0.0 
0.3118135E+01  0.1357415E+00   0.0 
0.3115988E+01  0.2087300E+00   0.0 
0.2359443E+01  0.2240150E+00   0.0 
0.2674047E+01  0.2449304E+00   0.0 
0.2716385E+01  0.1914259E+00   0.0 
0.2982721E+01  0.1856673E+00   0.0 
0.3030837E+01  0.2393458E+00   0.0 
0.2948948E+01  0.2493530E+00   0.0 
0.1603453E+01  0.1227109E+00   0.0 
0.1660156E+01  0.0000000E+00   0.0 
0.1582367E+01  0.1711822E+00   0.0 
0.1655800E+01  0.1704093E+00   0.0 
0.1604469E+01  0.2191989E+00   0.0 
0.3063479E+01  0.1109992E+00   0.0 
0.0000000E+00  0.0000000E+00   0.0 
0.3320312E+01  0.0000000E+00   0.0 
0.3271484E+01  0.4414214E-01   0.0 
0.3222656E+01  0.0000000E+00   0.0 
0.2957063E+00  0.7703067E+00   0.0 
0.3515625E+01  0.0000000E+00   0.0 
0.3498280E+01  0.6828667E-01   0.0 
0.3466797E+01  0.0000000E+00   0.0 
0.3613281E+01  0.0000000E+00   0.0 
0.3619549E+01  0.8452166E-01   0.0 
0.3562677E+01  0.4829747E-01   0.0 
0.3547941E+00  0.6686404E+00   0.0 
0.3005646E+00  0.6642528E+00   0.0 
0.3139263E+00  0.6110475E+00   0.0 
0.2607362E+00  0.8283159E+00   0.0 
0.3759766E+01  0.0000000E+00   0.0 
0.3808594E+01  0.0000000E+00   0.0 
0.3763008E+01  0.6663303E-01   0.0 
0.3994948E+00  0.6376253E+00   0.0 
0.4302600E+00  0.6863802E+00   0.0 
0.3468753E+01  0.1322559E+00   0.0 
0.3427885E+01  0.7118633E-01   0.0 
0.3212058E+01  0.7244713E-01   0.0 
0.3834894E+01  0.6690281E-01   0.0 
0.3855620E+01  0.1357370E+00   0.0 
0.3782618E+01  0.1449496E+00   0.0 
0.3707172E+01  0.7233161E-01   0.0 
0.3662109E+01  0.3887232E-01   0.0 
0.3369141E+01  0.4308543E-01   0.0 
0.3417969E+01  0.0000000E+00   0.0 
0.4199219E+01  0.0000000E+00   0.0 
0.4296875E+01  0.0000000E+00   0.0 
0.4248047E+01  0.3889865E-01   0.0 
0.2367821E+00  0.7649584E+00   0.0 
0.3931967E+01  0.9820535E-01   0.0 
0.3946711E+01  0.4187446E-01   0.0 
0.4088516E+01  0.6362520E-01   0.0 
0.4101562E+01  0.0000000E+00   0.0 
0.4149900E+01  0.3951416E-01   0.0 
0.4307649E+01  0.1746820E+00   0.0 
0.4246561E+01  0.1783490E+00   0.0 
0.4267562E+01  0.1104277E+00   0.0 
0.4003906E+01  0.0000000E+00   0.0 
0.1555646E+00  0.7197677E+00   0.0 
0.2058838E+00  0.7249113E+00   0.0 
0.4198204E+01  0.1408421E+00   0.0 
0.4141376E+01  0.1013628E+00   0.0 
0.4199219E+01  0.7779729E-01   0.0 
0.3172926E+01  0.1157127E+00   0.0 
0.3236662E+01  0.1271295E+00   0.0 
0.3175989E+01  0.1739691E+00   0.0 
0.4394531E+01  0.0000000E+00   0.0 
0.4492188E+01  0.0000000E+00   0.0 
0.4456882E+01  0.6065984E-01   0.0 
0.2699906E+00  0.7159904E+00   0.0 
0.4589844E+01  0.0000000E+00   0.0 
0.4605847E+01  0.5944601E-01   0.0 
0.4544285E+01  0.5961355E-01   0.0 
0.4882812E+01  0.0000000E+00   0.0 
0.4907355E+01  0.6228905E-01   0.0 
0.4842242E+01  0.5196415E-01   0.0 
0.4469809E+00  0.6142424E+00   0.0 
0.5054627E+01  0.1291795E+00   0.0 
0.4993451E+01  0.1305282E+00   0.0 
0.5022537E+01  0.6172552E-01   0.0 
0.4687500E+01  0.0000000E+00   0.0 
0.4678607E+01  0.6255911E-01   0.0 
0.5503646E+01  0.7574434E-01   0.0 
0.5419922E+01  0.6840625E-01   0.0 
0.5468750E+01  0.0000000E+00   0.0 
0.4041615E+00  0.5143751E+00   0.0 
0.3427104E+00  0.4533737E+00   0.0 
[...]
POINT_DATA    6480
SCALARS scalars float 1
LOOKUP_TABLE default
0.1100000E+00
0.1100000E+00
0.1100000E+00
0.1100000E+00
0.1100000E+00
0.1100000E+00
0.1100000E+00
0.1100000E+00
0.1100000E+00
0.1100000E+00
0.1100000E+00
0.1100000E+00
0.1100000E+00
0.1100000E+00
0.1100000E+00
0.1100000E+00
0.1100000E+00
0.1100000E+00
0.1100000E+00
0.1100000E+00
0.1100000E+00
0.1100000E+00
0.1100000E+00
0.1100000E+00
0.1100000E+00
0.1100000E+00
0.1100000E+00
0.1100000E+00
0.1100000E+00
0.1100000E+00
0.1100000E+00
0.1100000E+00
0.1100000E+00
0.1100000E+00
0.1100000E+00
0.1100000E+00
0.1100000E+00
0.1100000E+00
0.1100000E+00
0.1100000E+00
0.1100000E+00
0.1100000E+00
0.1100000E+00
0.1100000E+00
0.1100000E+00
0.1100000E+00
0.1100000E+00
0.1100000E+00
0.1100000E+00
0.1100000E+00
0.1100000E+00
0.1100000E+00
0.1100000E+00
0.1100000E+00
0.1100000E+00
0.1100000E+00
0.1100000E+00
0.1100000E+00
0.1100000E+00
0.1100000E+00
0.1100000E+00
0.1100000E+00
0.1100000E+00
0.1100000E+00
0.1100000E+00
0.1100000E+00
0.1100000E+00
0.1100000E+00
0.1100000E+00
0.1100000E+00
0.1100000E+00
0.1100000E+00
0.1100000E+00
0.1100000E+00
0.1100000E+00
0.1100000E+00
0.1100000E+00
0.1100000E+00
0.1100000E+00
0.1100000E+00
0.1100000E+00
0.1100000E+00
0.1100000E+00
0.1100000E+00
0.1100000E+00
0.1100000E+00
0.1100000E+00
0.1100000E+00
0.1100000E+00
0.1100000E+00
0.1100000E+00
0.1100000E+00
0.1100000E+00
0.1100000E+00
0.1100000E+00
0.1100000E+00
0.1100000E+00
0.1100000E+00
0.1100000E+00
0.1100000E+00
0.1100000E+00
0.1100000E+00
0.1100000E+00
0.1100000E+00
0.1100000E+00
0.1100000E+00
0.1100000E+00
0.1100000E+00
0.1100000E+00
0.1100000E+00
0.1100000E+00
0.1100000E+00
0.1100000E+00
0.1100000E+00
0.1100000E+00
0.1100000E+00
0.1100000E+00
0.1100000E+00
0.1100000E+00
0.1100000E+00
0.1100000E+00
0.1100000E+00
0.1100000E+00
0.1100000E+00
0.1100000E+00
0.1100000E+00
0.1100000E+00
0.1100000E+00
0.1100000E+00
0.1100000E+00
0.1100000E+00
0.1100000E+00
0.1100000E+00
0.1100000E+00
0.1100000E+00
0.1100000E+00
0.1100000E+00
0.1100000E+00
0.1100000E+00
0.1100000E+00
0.1100000E+00
0.1100000E+00
0.1100000E+00
0.1100000E+00
0.1100000E+00
0.1100000E+00
0.1100000E+00
0.1100000E+00
0.1100000E+00
0.1100000E+00
0.1100000E+00
0.1100000E+00
0.1100000E+00
0.1100000E+00
0.1100000E+00
0.1100000E+00
0.1100000E+00
0.1100000E+00
0.1100000E+00
0.1100000E+00
0.1100000E+00
0.1100000E+00
0.1100000E+00
0.1100000E+00
0.1100000E+00
0.1100000E+00
0.1100000E+00
0.1100000E+00
0.1100000E+00
0.1100000E+00
0.1100000E+00
0.1100000E+00
0.1100000E+00
0.1100000E+00
0.1100000E+00
0.1100000E+00
0.1100000E+00
0.1100000E+00
0.1100000E+00
0.1100000E+00
0.1100000E+00
0.1100000E+00
0.1100000E+00
0.1100000E+00
0.1100000E+00
0.1100000E+00
0.1100000E+00
0.1100000E+00
0.1100000E+00
0.1100000E+00
0.1100000E+00
0.1100000E+00
0.1100000E+00
0.1100000E+00
0.1100000E+00
0.1100000E+00
0.1100000E+00
0.1100000E+00
0.1100000E+00
0.1100000E+00
0.1100000E+00
0.1100000E+00
0.1100000E+00
0.1100000E+00
0.1100000E+00
0.1100000E+00
0.1100000E+00
0.1100000E+00
0.1100000E+00
0.1100000E+00
0.1100000E+00
0.1100000E+00
0.1100000E+00
0.1100000E+00
0.1100000E+00
0.1100000E+00
0.1100000E+00
0.1100000E+00
0.1100000E+00
0.1100000E+00
0.1100000E+00
0.1100000E+00
0.1100000E+00
0.1100000E+00
0.1100000E+00
0.1100000E+00
0.1100000E+00
0.1100000E+00
0.1100000E+00
0.1100000E+00
0.1100000E+00
0.1100000E+00
0.1100000E+00
0.1100000E+00
0.1100000E+00
0.1100000E+00
0.1100000E+00
0.1100000E+00
0.1100000E+00
0.1100000E+00
0.1100000E+00
0.1100000E+00
0.1100000E+00
0.1100000E+00
0.1100000E+00
0.1100000E+00
0.1100000E+00
0.1100000E+00
0.1100000E+00
0.1100000E+00
0.1100000E+00
0.1100000E+00
0.1100000E+00
0.1100000E+00
0.1100000E+00
0.1100000E+00
0.1100000E+00
0.1100000E+00
0.1100000E+00
0.1100000E+00
0.1100000E+00
0.1100000E+00
0.1100000E+00
0.1100000E+00
0.1100000E+00
0.1100000E+00
0.1100000E+00
0.1100000E+00
0.1100000E+00
0.1100000E+00
0.1100000E+00
0.1100000E+00
0.1100000E+00
0.1100000E+00
0.1100000E+00
0.1100000E+00
0.1100000E+00
0.1100000E+00
0.1100000E+00
0.1100000E+00
0.1100000E+00
0.1100000E+00
0.1100000E+00
0.1100000E+00
0.1100000E+00
0.1100000E+00
0.1100000E+00
0.1100000E+00
0.1100000E+00
0.1100000E+00
0.1100000E+00
0.1100000E+00
0.1100000E+00
0.1100000E+00
0.1100000E+00
0.1100000E+00
0.1100000E+00
0.1100000E+00
0.1100000E+00
0.1100000E+00
0.1100000E+00
0.1100000E+00
0.1100000E+00
0.1100000E+00
0.1100000E+00
0.1100000E+00
0.1100000E+00
0.1100000E+00
0.1100000E+00
0.1100000E+00
0.1100000E+00
0.1100000E+00
0.1100000E+00
0.1100000E+00
0.1100000E+00
0.1100000E+00
0.1100000E+00
0.1100000E+00
0.1100000E+00
0.1100000E+00
0.1100000E+00
0.1100000E+00
0.1100000E+00
0.1100000E+00
0.1100000E+00
0.1100000E+00
0.1100000E+00
0.1100000E+00
0.1100000E+00
0.1100000E+00
0.1100000E+00
0.1100000E+00
0.1100000E+00
0.1100000E+00
0.1100000E+00
0.1100000E+00
0.1100000E+00
0.1100000E+00
0.1100000E+00
0.1100000E+00
0.1100000E+00
0.1100000E+00
0.1100000E+00
0.1100000E+00
0.1100000E+00
0.1100000E+00
0.1100000E+00
0.1100000E+00
0.1100000E+00
0.1100000E+00
0.1100000E+00
0.1100000E+00
0.1100000E+00
0.1100000E+00
0.1100000E+00
0.1100000E+00
0.1100000E+00
0.1100000E+00
0.1100000E+00
0.1100000E+00
0.1100000E+00
0.1100000E+00
0.1100000E+00
0.1100000E+00
0.1100000E+00
0.1100000E+00
0.1100000E+00
0.1100000E+00
0.1100000E+00
0.1100000E+00
0.1100000E+00
0.1100000E+00
0.1100000E+00
0.1100000E+00
0.1100000E+00
0.1100000E+00
0.1100000E+00
0.1100000E+00
0.1100000E+00
0.1100000E+00
0.1100000E+00
0.1100000E+00
0.1100000E+00
0.1100000E+00
0.1100000E+00
0.1100000E+00
0.1100000E+00
0.1100000E+00
0.1100000E+00
0.1100000E+00
0.1100000E+00
0.1100000E+00
0.1100000E+00
0.1100000E+00
0.1100000E+00
0.1100000E+00
0.1100000E+00
0.1100000E+00
0.1100000E+00
0.1100000E+00
0.1100000E+00
0.1100000E+00
0.1100000E+00
0.1100000E+00
0.1100000E+00
0.1100000E+00
0.1100000E+00
0.1100000E+00
0.1100000E+00
0.1100000E+00
0.1100000E+00
0.1100000E+00
0.1100000E+00
0.1100000E+00
0.1100000E+00
0.1100000E+00
0.1100000E+00
0.1100000E+00
0.1100000E+00
0.1100000E+00
0.1100000E+00
0.1100000E+00
0.1100000E+00
0.1100000E+00
0.1100000E+00
0.1100000E+00
0.1100000E+00
0.1100000E+00
0.1100000E+00
0.1100000E+00
0.1100000E+00
0.1100000E+00
0.1100000E+00
0.1100000E+00
0.1100000E+00
0.1100000E+00
0.1100000E+00
0.1100000E+00
0.1100000E+00
0.1100000E+00
0.1100000E+00
0.1100000E+00
0.1100000E+00
0.1100000E+00
0.1100000E+00
0.1100000E+00
0.1100000E+00
0.1100000E+00
0.1100000E+00
0.1100000E+00
0.1100000E+00
0.1100000E+00
0.1100000E+00
0.1100000E+00
0.1100000E+00
0.1100000E+00
0.1100000E+00
0.1100000E+00
0.1100000E+00
0.1100000E+00
0.1100000E+00
0.1100000E+00
0.1100000E+00
0.1100000E+00
0.1100000E+00
0.1100000E+00
0.1100000E+00
0.1100000E+00
0.1100000E+00
0.1100000E+00
0.1100000E+00
0.1100000E+00
0.1100000E+00
0.1100000E+00
0.1100000E+00
0.1100000E+00
0.1100000E+00
0.1100000E+00
0.1100000E+00
0.1100000E+00
0.1100000E+00
0.1100000E+00
0.1100000E+00
0.1100000E+00
0.1100000E+00
0.1100000E+00
0.1100000E+00
0.1100000E+00
0.1100000E+00
0.1100000E+00
0.1100000E+00
0.1100000E+00
0.1100000E+00
0.1100000E+00
0.1100000E+00
0.1100000E+00
0.1100000E+00
0.1100000E+00
0.1100000E+00
0.1100000E+00
0.1100000E+00
0.1100000E+00
0.1100000E+00
0.1100000E+00
0.1100000E+00
0.1100000E+00
0.1100000E+00
0.1100000E+00
0.1100000E+00
0.1100000E+00
0.1100000E+00
0.1100000E+00
0.1100000E+00
0.1100000E+00
0.1100000E+00
0.1100000E+00
0.1100000E+00
0.1100000E+00
0.1100000E+00
0.1100000E+00
0.1100000E+00
0.1100000E+00
0.1100000E+00
0.1100000E+00
0.1100000E+00
0.1100000E+00
0.1100000E+00
0.1100000E+00
0.1100000E+00
0.1100000E+00
0.1100000E+00
0.1100000E+00
0.1100000E+00
0.1100000E+00
0.1100000E+00
0.1100000E+00
0.1100000E+00
0.1100000E+00
0.1100000E+00
0.1100000E+00
0.1100000E+00
0.1100000E+00
0.1100000E+00
0.1100000E+00
0.1100000E+00
0.1100000E+00
0.1100000E+00
0.1100000E+00
0.1100000E+00
0.1100000E+00
0.1100000E+00
0.1100000E+00
0.1100000E+00
0.1100000E+00
0.1100000E+00
0.1100000E+00
0.1100000E+00
0.1100000E+00
0.1100000E+00
0.1100000E+00
0.1100000E+00
0.1100000E+00
0.1100000E+00
0.1100000E+00
0.1100000E+00
0.1100000E+00
0.1100000E+00
0.1100000E+00
0.1100000E+00
0.1100000E+00
0.1100000E+00
0.1100000E+00
0.1100000E+00
0.1100000E+00
0.1100000E+00
0.1100000E+00
0.1100000E+00
0.1100000E+00
0.1100000E+00
0.1100000E+00
0.1100000E+00
0.1100000E+00
0.1100000E+00
0.1100000E+00
0.1100000E+00
0.1100000E+00
0.1100000E+00
0.1100000E+00
0.1100000E+00
0.1100000E+00
0.1100000E+00
0.1100000E+00
0.1100000E+00
0.1100000E+00
0.1100000E+00
0.1100000E+00
0.1100000E+00
0.1100000E+00
0.1100000E+00
0.1100000E+00
0.1100000E+00
0.1100000E+00
0.1100000E+00
0.1100000E+00
0.1100000E+00
0.1100000E+00
0.1100000E+00
0.1100000E+00
0.1100000E+00
0.1100000E+00
0.1100000E+00
0.1100000E+00
0.1100000E+00
0.1100000E+00
0.1100000E+00
0.1100000E+00
0.1100000E+00
0.1100000E+00
0.1100000E+00
0.1100000E+00
0.1100000E+00
0.1100000E+00
0.1100000E+00
0.1100000E+00
0.1100000E+00
0.1100000E+00
0.1100000E+00
0.1100000E+00
0.1100000E+00
0.1100000E+00
0.1100000E+00
0.1100000E+00
0.1100000E+00
0.1100000E+00
0.1100000E+00
0.1100000E+00
0.1100000E+00
0.1100000E+00
0.1100000E+00
0.1100000E+00
0.1100000E+00
0.1100000E+00
0.1100000E+00
0.1100000E+00
0.1100000E+00
0.1100000E+00
0.1100000E+00
0.1100000E+00
0.1100000E+00
0.1100000E+00
0.1100000E+00
0.1100000E+00
0.1100000E+00
0.1100000E+00
0.1100000E+00
0.1100000E+00
0.1100000E+00
0.1100000E+00
0.1100000E+00
0.1100000E+00
0.1100000E+00
0.1100000E+00
0.1100000E+00
0.1100000E+00
0.1100000E+00
0.1100000E+00
0.1100000E+00
0.1100000E+00
0.1100000E+00
0.1100000E+00
0.1100000E+00
0.1100000E+00
0.1100000E+00
0.1100000E+00
0.1100000E+00
0.1100000E+00
0.1100000E+00
0.1100000E+00
0.1100000E+00
0.1100000E+00
0.1100000E+00
0.1100000E+00
0.1100000E+00
0.1100000E+00
0.1100000E+00
0.1100000E+00
0.1100000E+00
0.1100000E+00
0.1100000E+00
0.1100000E+00
0.1100000E+00
0.1100000E+00
0.1100000E+00
0.1100000E+00
0.1100000E+00
0.1100000E+00
0.1100000E+00
0.1100000E+00
0.1100000E+00
0.1100000E+00
0.1100000E+00
0.1100000E+00
0.1100000E+00
0.1100000E+00
0.1100000E+00
0.1100000E+00
0.1100000E+00
0.1100000E+00
0.1100000E+00
0.1100000E+00
0.1100000E+00
0.1100000E+00
0.1100000E+00
0.1100000E+00
0.1100000E+00
0.1100000E+00
0.1100000E+00
0.1100000E+00
0.1100000E+00
0.1100000E+00
0.1100000E+00
0.1100000E+00
0.1100000E+00
0.1100000E+00
0.1100000E+00
0.1100000E+00
0.1100000E+00
0.1100000E+00
0.1100000E+00
0.1100000E+00
0.1100000E+00
0.1100000E+00
0.1100000E+00
0.1100000E+00
0.1100000E+00
0.1100000E+00
0.1100000E+00
0.1100000E+00
0.1100000E+00
0.1100000E+00
0.1100000E+00
0.1100000E+00
0.1100000E+00
0.1100000E+00
0.1100000E+00
0.1100000E+00
0.1100000E+00
0.1100000E+00
0.1100000E+00
0.1100000E+00
0.1100000E+00
0.1100000E+00
0.1100000E+00
0.1100000E+00
0.1100000E+00
0.1100000E+00
0.1100000E+00
0.1100000E+00
0.1100000E+00
0.1100000E+00
0.1100000E+00
0.1100000E+00
0.1100000E+00
0.1100000E+00
0.1100000E+00
0.1100000E+00
0.1100000E+00
0.1100000E+00
0.1100000E+00
0.1100000E+00
0.1100000E+00
0.1100000E+00
0.1100000E+00
0.1100000E+00
0.1100000E+00
0.1100000E+00
0.1100000E+00
0.1100000E+00
0.1100000E+00
0.1100000E+00
0.1100000E+00
0.1100000E+00
0.1100000E+00
0.1100000E+00
0.1100000E+00
0.1100000E+00
0.1100000E+00
0.1100000E+00
0.1100000E+00
0.1100000E+00
0.1100000E+00
0.1100000E+00
0.1100000E+00
0.1100000E+00
0.1100000E+00
0.1100000E+00
0.1100000E+00
0.1100000E+00
0.1100000E+00
0.1100000E+00
0.1100000E+00
0.1100000E+00
0.1100000E+00
0.1100000E+00
0.1100000E+00
0.1100000E+00
0.1100000E+00
0.1100000E+00
0.1100000E+00
0.1100000E+00
0.1100001E+00
0.1100001E+00
0.1100001E+00
0.1100000E+00
0.1100000E+00
0.1100000E+00
0.1100000E+00
0.1100000E+00
0.1100000E+00
0.1100000E+00
0.1100000E+00
0.1100000E+00
0.1100000E+00
0.1100000E+00
0.1100003E+00
0.1100004E+00
0.1100004E+00
0.1100000E+00
0.1100003E+00
0.1100099E+00
0.1100088E+00
0.1100113E+00
0.1100007E+00
0.1100009E+00
0.1100009E+00
0.1100002E+00
0.1100002E+00
0.1100002E+00
0.1100001E+00
0.1100001E+00
0.1100001E+00
0.1100000E+00
0.1100000E+00
0.1100000E+00
0.1100006E+00
0.1100008E+00
0.1100000E+00
0.1100000E+00
0.1100000E+00
0.1100000E+00
0.1100000E+00
0.1100000E+00
0.1100000E+00
0.1100000E+00
0.1100000E+00
0.1100000E+00
0.1100000E+00
0.1100000E+00
0.1100000E+00
0.1100000E+00
0.1100000E+00
0.1100000E+00
0.1100000E+00
0.1100000E+00
0.1100000E+00
0.1100000E+00
0.1100000E+00
0.1100000E+00
0.1100000E+00
0.1100000E+00
0.1100000E+00
0.1100000E+00
0.1100000E+00
0.1100000E+00
0.1100000E+00
0.1100000E+00
0.1100000E+00
0.1100000E+00
0.1100000E+00
0.1100000E+00
0.1100000E+00
0.1100000E+00
0.1100000E+00
0.1100000E+00
0.1100000E+00
0.1100000E+00
0.1100000E+00
0.1100000E+00
0.1100000E+00
0.1100000E+00
0.1100000E+00
0.1100000E+00
0.1100000E+00
0.1100000E+00
0.1100000E+00
0.1100000E+00
0.1100000E+00
0.1100001E+00
0.1100001E+00
0.1100000E+00
0.1100001E+00
0.1100002E+00
0.1100000E+00
0.1100000E+00
0.1100000E+00
0.1100000E+00
0.1100000E+00
0.1100000E+00
0.1100000E+00
0.1100000E+00
0.1100001E+00
0.1100001E+00
0.1100000E+00
0.1100000E+00
0.1100001E+00
0.1100001E+00
0.1100001E+00
0.1100001E+00
0.1100001E+00
0.1100005E+00
0.1100004E+00
0.1100006E+00
0.1100000E+00
0.1100002E+00
0.1100002E+00
0.1100003E+00
0.1100000E+00
0.1100000E+00
0.1100000E+00
0.1100000E+00
0.1100000E+00
0.1100000E+00
0.1100010E+00
0.1100000E+00
0.1100000E+00
0.1100045E+00
0.1100027E+00
0.1100035E+00
0.1100085E+00
0.1100069E+00
0.1100089E+00
0.1100360E+00
0.1100502E+00
0.1100358E+00
0.1100936E+00
0.1101505E+00
0.1101183E+00
0.1100000E+00
0.1100237E+00
0.1100186E+00
0.1100149E+00
0.1100111E+00
0.1100081E+00
0.1100176E+00
0.1100229E+00
0.1100139E+00
0.1100116E+00
0.1102602E+00
0.1102414E+00
0.1102305E+00
0.1101184E+00
0.1101135E+00
0.1100937E+00
0.1100625E+00
0.1100609E+00
0.1101505E+00
0.1104600E+00
0.1104290E+00
0.1103989E+00
0.1100520E+00
0.1102297E+00
0.1102975E+00
0.1102969E+00
0.1100052E+00
0.1100046E+00
0.1100052E+00
0.1104017E+00
0.1104374E+00
0.1104578E+00
0.1103648E+00
0.1104023E+00
0.1100334E+00
0.1100346E+00
0.1100419E+00
0.1100000E+00
0.1100325E+00
0.1100298E+00
0.1100272E+00
0.1101655E+00
0.1101404E+00
0.1102044E+00
0.1102197E+00
0.1103137E+00
0.1102151E+00
0.1100080E+00
0.1099978E+00
0.1100217E+00
0.1100319E+00
0.1100210E+00
0.1104134E+00
0.1104489E+00
0.1104479E+00
0.1101193E+00
0.1101339E+00
0.1100914E+00
0.1100835E+00
0.1101177E+00
0.1101892E+00
0.1100000E+00
0.1101072E+00
0.1100730E+00
0.1101051E+00
0.1102005E+00
0.1101428E+00
0.1102395E+00
0.1103800E+00
0.1100312E+00
0.1100279E+00
0.1100016E+00
0.1100020E+00
0.1100020E+00
0.1100018E+00
0.1100013E+00
0.1100054E+00
0.1100033E+00
0.1100508E+00
0.1100404E+00
0.1100108E+00
0.1100112E+00
0.1103714E+00
0.1103511E+00
0.1100051E+00
0.1100042E+00
0.1100799E+00
0.1102055E+00
0.1102485E+00
0.1102307E+00
0.1100029E+00
0.1100031E+00
0.1100014E+00
0.1100010E+00
0.1100104E+00
0.1100091E+00
0.1100289E+00
0.1100229E+00
0.1100225E+00
0.1101416E+00
0.1101647E+00
0.1101797E+00
0.1100738E+00
0.1100924E+00
0.1101044E+00
0.1102825E+00
0.1103038E+00
0.1102530E+00
0.1103389E+00
0.1103338E+00
0.1104465E+00
0.1104615E+00
0.1104075E+00
0.1100785E+00
0.1100296E+00
0.1104658E+00
0.1104725E+00
0.1104623E+00
0.1100013E+00
0.1103184E+00
0.1102747E+00
0.1103429E+00
0.1104469E+00
0.1104790E+00
0.1100577E+00
0.1100408E+00
0.1100846E+00
0.1100723E+00
0.1100590E+00
0.1100898E+00
0.1100649E+00
0.1102628E+00
0.1102398E+00
0.1100776E+00
0.1100800E+00
0.1100234E+00
0.1100622E+00
0.1102268E+00
0.1101535E+00
0.1100536E+00
0.1101743E+00
0.1100234E+00
0.1100474E+00
0.1100305E+00
0.1100745E+00
0.1100719E+00
0.1100970E+00
0.1102369E+00
0.1100399E+00
0.1100688E+00
0.1103039E+00
0.1100258E+00
0.1100281E+00
0.1100410E+00
0.1100603E+00
0.1100047E+00
0.1100444E+00
0.1100369E+00
0.1100199E+00
0.1100292E+00
0.1100412E+00
0.1100227E+00
0.1100287E+00
0.1102545E+00
0.1103483E+00
0.1103378E+00
0.1104325E+00
0.1103871E+00
0.1100764E+00
0.1100006E+00
0.1102713E+00
0.1105781E+00
0.1103321E+00
0.1100014E+00
0.1100023E+00
0.1100270E+00
0.1101088E+00
0.1100000E+00
0.1100000E+00
0.1100000E+00
0.1100000E+00
0.1100000E+00
0.1100000E+00
0.1100000E+00
0.1100000E+00
0.1100000E+00
0.1100000E+00
0.1100000E+00
0.1100000E+00
0.1100000E+00
0.1100000E+00
0.1100000E+00
0.1100000E+00
0.1100000E+00
0.1100000E+00
0.1100000E+00
0.1100000E+00
0.1100000E+00
0.1100000E+00
0.1100000E+00
0.1100000E+00
0.1100000E+00
0.1100000E+00
0.1100000E+00
0.1100000E+00
0.1100000E+00
0.1100000E+00
0.1100000E+00
0.1100000E+00
0.1100000E+00
0.1100000E+00
0.1100000E+00
0.1100000E+00
0.1100000E+00
0.1100000E+00
0.1100000E+00
0.1100000E+00
0.1100000E+00
0.1100000E+00
0.1100000E+00
0.1100000E+00
0.1100000E+00
0.1100000E+00
0.1100000E+00
0.1100000E+00
0.1100000E+00
0.1100000E+00
0.1100000E+00
0.1100000E+00
0.1100000E+00
0.1100000E+00
0.1100000E+00
0.1100000E+00
0.1100000E+00
0.1100001E+00
0.1100002E+00
0.1100002E+00
0.1100000E+00
0.1100000E+00
0.1100003E+00
0.1100002E+00
0.1100000E+00
0.1100000E+00
0.1100000E+00
0.1100000E+00
0.1100000E+00
0.1100000E+00
0.1100000E+00
0.1100000E+00
0.1100000E+00
0.1100000E+00
0.1100002E+00
0.1100004E+00
0.1100006E+00
0.1100003E+00
0.1100000E+00
0.1100000E+00
0.1100000E+00
0.1100003E+00
0.1100006E+00
0.1100000E+00
0.1100000E+00
0.1100000E+00
0.1100002E+00
0.1100000E+00
0.1100000E+00
0.1100000E+00
0.1100000E+00
0.1100000E+00
0.1100000E+00
0.1100000E+00
0.1100000E+00
0.1100000E+00
0.1100000E+00
0.1100000E+00
0.1100000E+00
0.1100000E+00
0.1100000E+00
0.1100000E+00
0.1100000E+00
0.1100000E+00
0.1100000E+00
0.1100000E+00
0.1100000E+00
0.1100000E+00
0.1100000E+00
0.1100000E+00
0.1100000E+00
0.1100000E+00
0.1100000E+00
0.1100000E+00
0.1100000E+00
0.1100000E+00
0.1100000E+00
0.1100000E+00
0.1100000E+00
0.1100000E+00
0.1100000E+00
0.1100000E+00
0.1100000E+00
0.1100000E+00
0.1100000E+00
0.1100000E+00
0.1100000E+00
0.1100000E+00
0.1100000E+00
0.1100000E+00
0.1100000E+00
0.1100000E+00
0.1100000E+00
0.1100000E+00
0.1100000E+00
0.1100000E+00
0.1100000E+00
0.1100000E+00
0.1100000E+00
0.1100001E+00
0.1100000E+00
0.1100000E+00
0.1100002E+00
0.1100002E+00
0.1100002E+00
0.1100002E+00
0.1100006E+00
0.1100006E+00
0.1100000E+00
0.1100004E+00
0.1100003E+00
0.1100000E+00
0.1100000E+00
0.1100000E+00
0.1100000E+00
0.1100000E+00
0.1100000E+00
0.1100000E+00
0.1100000E+00
0.1100000E+00
0.1100000E+00
0.1100001E+00
0.1100001E+00
0.1100001E+00
0.1100001E+00
0.1100001E+00
0.1100001E+00
0.1100001E+00
0.1100000E+00
0.1100001E+00
0.1100001E+00
0.1100004E+00
0.1100004E+00
0.1100005E+00
0.1100000E+00
0.1100006E+00
0.1100000E+00
0.1100000E+00
0.1100000E+00
0.1100000E+00
0.1100001E+00
0.1100008E+00
0.1100000E+00
0.1100000E+00
0.1100076E+00
0.1100070E+00
0.1100155E+00
0.1100171E+00
0.1101282E+00
0.1100415E+00
0.1100349E+00
0.1100299E+00
0.1100016E+00
0.1100012E+00
0.1100012E+00
0.1100022E+00
0.1100019E+00
0.1100027E+00
0.1100036E+00
0.1100036E+00
0.1100032E+00
0.1100015E+00
0.1100010E+00
0.1100040E+00
0.1100176E+00
0.1100138E+00
0.1100634E+00
0.1100455E+00
0.1101057E+00
0.1100046E+00
0.1101285E+00
0.1101555E+00
0.1100871E+00
0.1103607E+00
0.1100006E+00
0.1100010E+00
0.1102843E+00
0.1103805E+00
0.1104532E+00
0.1104469E+00
0.1104579E+00
0.1101218E+00
0.1101026E+00
0.1100672E+00
0.1102181E+00
0.1101665E+00
0.1101496E+00
0.1100537E+00
0.1100936E+00
0.1100317E+00
0.1100485E+00
0.1099982E+00
0.1100703E+00
0.1101002E+00
0.1100247E+00
0.1100492E+00
0.1101510E+00
0.1102402E+00
0.1102305E+00
0.1102008E+00
0.1100532E+00
0.1100479E+00
0.1103648E+00
0.1103529E+00
0.1102871E+00
0.1104524E+00
0.1104232E+00
0.1104543E+00
0.1101022E+00
0.1104272E+00
0.1104552E+00
0.1101463E+00
0.1100487E+00
0.1099293E+00
0.1100732E+00
0.1100758E+00
0.1100199E+00
0.1100941E+00
0.1103317E+00
0.1100092E+00
0.1100486E+00
0.1100303E+00
0.1100262E+00
0.1100714E+00
0.1100472E+00
0.1100516E+00
0.1104686E+00
0.1104114E+00
0.1103076E+00
0.1104691E+00
0.1103212E+00
0.1102873E+00
0.1102832E+00
0.1100063E+00
0.1100051E+00
0.1100110E+00
0.1100094E+00
0.1100149E+00
0.1102123E+00
0.1102000E+00
0.1101509E+00
0.1100240E+00
0.1100225E+00
0.1102449E+00
0.1102539E+00
0.1102899E+00
0.1100210E+00
0.1102139E+00
0.1100359E+00
0.1100463E+00
0.1100491E+00
0.1100022E+00
0.1100017E+00
0.1100016E+00
0.1100026E+00
0.1100028E+00
0.1100031E+00
0.1100044E+00
0.1100047E+00
0.1100008E+00