# vtk DataFile Version 3.0
vtk bath.vtk
ASCII
DATASET UNSTRUCTURED_GRID
POINTS     508 float
0.0000000E+00  0.0000000E+00   0.0 
0.8732265E-01  0.8732752E-01   0.0 
0.0000000E+00  0.2000000E+00   0.0 
0.1640186E+00  0.2946305E+00   0.0 
0.0000000E+00  0.4000000E+00   0.0 
0.1753255E+00  0.4891794E+00   0.0 
0.0000000E+00  0.6000000E+00   0.0 
0.1750544E+00  0.6918856E+00   0.0 
0.0000000E+00  0.8000000E+00   0.0 
0.1755891E+00  0.8938340E+00   0.0 
0.0000000E+00  0.1000000E+01   0.0 
0.1751969E+00  0.1096178E+01   0.0 
0.0000000E+00  0.1200000E+01   0.0 
0.1742595E+00  0.1298043E+01   0.0 
0.0000000E+00  0.1400000E+01   0.0 
0.1735788E+00  0.1499124E+01   0.0 
0.0000000E+00  0.1600000E+01   0.0 
0.1732776E+00  0.1699655E+01   0.0 
0.0000000E+00  0.1800000E+01   0.0 
0.1731867E+00  0.1899892E+01   0.0 
0.0000000E+00  0.2000000E+01   0.0 
0.0000000E+00  0.2200000E+01   0.0 
0.1731521E+00  0.2100008E+01   0.0 
0.1731044E+00  0.2300120E+01   0.0 
0.0000000E+00  0.2400000E+01   0.0 
0.1730368E+00  0.2500332E+01   0.0 
0.0000000E+00  0.2600000E+01   0.0 
0.1729659E+00  0.2700743E+01   0.0 
0.0000000E+00  0.2800000E+01   0.0 
0.1728779E+00  0.2901396E+01   0.0 
0.0000000E+00  0.3000000E+01   0.0 
0.1727998E+00  0.3102208E+01   0.0 
0.0000000E+00  0.3200000E+01   0.0 
0.1731702E+00  0.3303240E+01   0.0 
0.0000000E+00  0.3400000E+01   0.0 
0.1749979E+00  0.3506456E+01   0.0 
0.0000000E+00  0.3600000E+01   0.0 
0.1643501E+00  0.3702731E+01   0.0 
0.0000000E+00  0.3800000E+01   0.0 
0.8735878E-01  0.3912413E+01   0.0 
0.0000000E+00  0.4000000E+01   0.0 
0.2000000E+00  0.4000000E+01   0.0 
0.2952593E+00  0.3833207E+01   0.0 
0.4000000E+00  0.4000000E+01   0.0 
0.4913698E+00  0.3819712E+01   0.0 
0.6000000E+00  0.4000000E+01   0.0 
0.6961992E+00  0.3819789E+01   0.0 
0.8000000E+00  0.4000000E+01   0.0 
0.8988096E+00  0.3821682E+01   0.0 
0.1000000E+01  0.4000000E+01   0.0 
0.1099881E+01  0.3824135E+01   0.0 
0.1200000E+01  0.4000000E+01   0.0 
0.1300050E+01  0.3825553E+01   0.0 
0.1400000E+01  0.4000000E+01   0.0 
0.1500034E+01  0.3826258E+01   0.0 
0.1600000E+01  0.4000000E+01   0.0 
0.1700016E+01  0.3826591E+01   0.0 
0.1800000E+01  0.4000000E+01   0.0 
0.1900017E+01  0.3826743E+01   0.0 
0.2000000E+01  0.4000000E+01   0.0 
0.2200000E+01  0.4000000E+01   0.0 
0.2100046E+01  0.3826821E+01   0.0 
0.2300133E+01  0.3826887E+01   0.0 
0.2400000E+01  0.4000000E+01   0.0 
0.2500340E+01  0.3826959E+01   0.0 
0.2600000E+01  0.4000000E+01   0.0 
0.2700750E+01  0.3827031E+01   0.0 
0.2800000E+01  0.4000000E+01   0.0 
0.2901402E+01  0.3827120E+01   0.0 
0.3000000E+01  0.4000000E+01   0.0 
0.3102211E+01  0.3827199E+01   0.0 
0.3200000E+01  0.4000000E+01   0.0 
0.3303241E+01  0.3826829E+01   0.0 
0.3400000E+01  0.4000000E+01   0.0 
0.3506457E+01  0.3825002E+01   0.0 
0.3600000E+01  0.4000000E+01   0.0 
0.3702731E+01  0.3835650E+01   0.0 
0.3800000E+01  0.4000000E+01   0.0 
0.3912413E+01  0.3912641E+01   0.0 
0.4000000E+01  0.4000000E+01   0.0 
0.4000000E+01  0.3800000E+01   0.0 
0.3833207E+01  0.3704741E+01   0.0 
0.4000000E+01  0.3600000E+01   0.0 
0.3819713E+01  0.3508630E+01   0.0 
0.4000000E+01  0.3400000E+01   0.0 
0.3819792E+01  0.3303800E+01   0.0 
0.4000000E+01  0.3200000E+01   0.0 
0.3821686E+01  0.3101188E+01   0.0 
0.4000000E+01  0.3000000E+01   0.0 
0.3824141E+01  0.2900116E+01   0.0 
0.4000000E+01  0.2800000E+01   0.0 
0.3825561E+01  0.2699947E+01   0.0 
0.4000000E+01  0.2600000E+01   0.0 
0.3826266E+01  0.2499962E+01   0.0 
0.4000000E+01  0.2400000E+01   0.0 
0.3826598E+01  0.2299980E+01   0.0 
0.4000000E+01  0.2200000E+01   0.0 
0.3826747E+01  0.2099980E+01   0.0 
0.4000000E+01  0.2000000E+01   0.0 
0.3826821E+01  0.1899952E+01   0.0 
0.4000000E+01  0.1800000E+01   0.0 
0.3826883E+01  0.1699864E+01   0.0 
0.4000000E+01  0.1600000E+01   0.0 
0.3826953E+01  0.1499657E+01   0.0 
0.4000000E+01  0.1400000E+01   0.0 
0.3827025E+01  0.1299247E+01   0.0 
0.4000000E+01  0.1200000E+01   0.0 
0.3827114E+01  0.1098596E+01   0.0 
0.4000000E+01  0.1000000E+01   0.0 
0.3827195E+01  0.8977874E+00   0.0 
0.4000000E+01  0.8000000E+00   0.0 
0.3826827E+01  0.6967578E+00   0.0 
0.4000000E+01  0.6000000E+00   0.0 
0.3825001E+01  0.4935430E+00   0.0 
0.4000000E+01  0.4000000E+00   0.0 
0.3835650E+01  0.2972691E+00   0.0 
0.4000000E+01  0.2000000E+00   0.0 
0.3912641E+01  0.8758680E-01   0.0 
0.4000000E+01  0.0000000E+00   0.0 
0.3800000E+01  0.0000000E+00   0.0 
0.3600000E+01  0.0000000E+00   0.0 
0.3704740E+01  0.1667930E+00   0.0 
0.3400000E+01  0.0000000E+00   0.0 
0.3508629E+01  0.1802868E+00   0.0 
0.3200000E+01  0.0000000E+00   0.0 
0.3303798E+01  0.1802074E+00   0.0 
0.3000000E+01  0.0000000E+00   0.0 
0.3101184E+01  0.1783121E+00   0.0 
0.2800000E+01  0.0000000E+00   0.0 
0.2900110E+01  0.1758561E+00   0.0 
0.2600000E+01  0.0000000E+00   0.0 
0.2699939E+01  0.1744351E+00   0.0 
0.2400000E+01  0.0000000E+00   0.0 
0.2499955E+01  0.1737307E+00   0.0 
0.2200000E+01  0.0000000E+00   0.0 
0.2299976E+01  0.1734029E+00   0.0 
0.2000000E+01  0.0000000E+00   0.0 
0.2099973E+01  0.1732783E+00   0.0 
0.1800000E+01  0.0000000E+00   0.0 
0.1899912E+01  0.1732946E+00   0.0 
0.1600000E+01  0.0000000E+00   0.0 
0.1699698E+01  0.1734854E+00   0.0 
0.1400000E+01  0.0000000E+00   0.0 
0.1499146E+01  0.1739601E+00   0.0 
0.1200000E+01  0.0000000E+00   0.0 
0.1297988E+01  0.1747950E+00   0.0 
0.1000000E+01  0.0000000E+00   0.0 
0.1096021E+01  0.1757650E+00   0.0 
0.8000000E+00  0.0000000E+00   0.0 
0.8936173E+00  0.1760509E+00   0.0 
0.6000000E+00  0.0000000E+00   0.0 
0.6916853E+00  0.1753522E+00   0.0 
0.4000000E+00  0.0000000E+00   0.0 
0.4890423E+00  0.1754862E+00   0.0 
0.2000000E+00  0.0000000E+00   0.0 
0.2945623E+00  0.1640891E+00   0.0 
0.1492276E+00  0.1492514E+00   0.0 
0.1494095E+00  0.3849664E+01   0.0 
0.3849664E+01  0.3850590E+01   0.0 
0.3850590E+01  0.1503358E+00   0.0 
0.3645942E+00  0.3648432E+00   0.0 
0.3480582E+00  0.5831140E+00   0.0 
0.3516219E+00  0.7844484E+00   0.0 
0.3524371E+00  0.9897119E+00   0.0 
0.3498901E+00  0.1194697E+01   0.0 
0.3477396E+00  0.1397523E+01   0.0 
0.3467084E+00  0.1598919E+01   0.0 
0.3463780E+00  0.1799582E+01   0.0 
0.3462901E+00  0.1999907E+01   0.0 
0.3462009E+00  0.2200133E+01   0.0 
0.3460538E+00  0.2400452E+01   0.0 
0.3459089E+00  0.2601063E+01   0.0 
0.3458291E+00  0.2802186E+01   0.0 
0.3455980E+00  0.3003794E+01   0.0 
0.3451229E+00  0.3205268E+01   0.0 
0.3460563E+00  0.3405789E+01   0.0 
0.3663095E+00  0.3627075E+01   0.0 
0.5904057E+00  0.3637857E+01   0.0 
0.7967233E+00  0.3638726E+01   0.0 
0.1000320E+01  0.3646361E+01   0.0 
0.1200453E+01  0.3650064E+01   0.0 
0.1400250E+01  0.3651886E+01   0.0 
0.1600130E+01  0.3652847E+01   0.0 
0.1800076E+01  0.3653340E+01   0.0 
0.2000087E+01  0.3653586E+01   0.0 
0.2200199E+01  0.3653755E+01   0.0 
0.2400486E+01  0.3653929E+01   0.0 
0.2601090E+01  0.3654079E+01   0.0 
0.2802207E+01  0.3654161E+01   0.0 
0.3003808E+01  0.3654395E+01   0.0 
0.3205276E+01  0.3654873E+01   0.0 
0.3405793E+01  0.3653942E+01   0.0 
0.3627076E+01  0.3633690E+01   0.0 
0.3637861E+01  0.3409592E+01   0.0 
0.3638736E+01  0.3203272E+01   0.0 
0.3646378E+01  0.2999672E+01   0.0 
0.3650088E+01  0.2799536E+01   0.0 
0.3651915E+01  0.2599737E+01   0.0 
0.3652874E+01  0.2399857E+01   0.0 
0.3653360E+01  0.2199913E+01   0.0 
0.3653595E+01  0.1999903E+01   0.0 
0.3653752E+01  0.1799792E+01   0.0 
0.3653915E+01  0.1599505E+01   0.0 
0.3654061E+01  0.1398901E+01   0.0 
0.3654144E+01  0.1197785E+01   0.0 
0.3654382E+01  0.9961855E+00   0.0 
0.3654865E+01  0.7947203E+00   0.0 
0.3653938E+01  0.5942052E+00   0.0 
0.3633688E+01  0.3729229E+00   0.0 
0.3409587E+01  0.3621365E+00   0.0 
0.3203262E+01  0.3612592E+00   0.0 
0.2999657E+01  0.3536146E+00   0.0 
0.2799516E+01  0.3499021E+00   0.0 
0.2599716E+01  0.3480747E+00   0.0 
0.2399845E+01  0.3471192E+00   0.0 
0.2199917E+01  0.3466610E+00   0.0 
0.1999917E+01  0.3465434E+00   0.0 
0.1799738E+01  0.3467577E+00   0.0 
0.1599129E+01  0.3474941E+00   0.0 
0.1397616E+01  0.3490409E+00   0.0 
0.1194499E+01  0.3514796E+00   0.0 
0.9892244E+00  0.3538594E+00   0.0 
0.7838876E+00  0.3525778E+00   0.0 
0.5826887E+00  0.3485801E+00   0.0 
0.4976276E+00  0.4982613E+00   0.0 
0.5241034E+00  0.6693446E+00   0.0 
0.5354912E+00  0.8780411E+00   0.0 
0.5285828E+00  0.1090213E+01   0.0 
0.5229425E+00  0.1295544E+01   0.0 
0.5203530E+00  0.1497820E+01   0.0 
0.5195314E+00  0.1698968E+01   0.0 
0.5193613E+00  0.1899612E+01   0.0 
0.5192526E+00  0.2100038E+01   0.0 
0.5190047E+00  0.2300471E+01   0.0 
0.5186811E+00  0.2501136E+01   0.0 
0.5185683E+00  0.2702346E+01   0.0 
0.5189061E+00  0.2904676E+01   0.0 
0.5180728E+00  0.3107798E+01   0.0 
0.5151015E+00  0.3309213E+01   0.0 
0.5016232E+00  0.3483552E+01   0.0 
0.6903636E+00  0.3437410E+01   0.0 
0.9047317E+00  0.3467681E+01   0.0 
0.1102039E+01  0.3473872E+01   0.0 
0.1300941E+01  0.3476651E+01   0.0 
0.1500550E+01  0.3478458E+01   0.0 
0.1700330E+01  0.3479623E+01   0.0 
0.1900216E+01  0.3480232E+01   0.0 
0.2100287E+01  0.3480592E+01   0.0 
0.2300591E+01  0.3480935E+01   0.0 
0.2501218E+01  0.3481284E+01   0.0 
0.2702411E+01  0.3481405E+01   0.0 
0.2904723E+01  0.3481073E+01   0.0 
0.3107827E+01  0.3481914E+01   0.0 
0.3309228E+01  0.3484892E+01   0.0 
0.3483558E+01  0.3498374E+01   0.0 
0.3437429E+01  0.3309627E+01   0.0 
0.3467714E+01  0.3095253E+01   0.0 
0.3473925E+01  0.2897938E+01   0.0 
0.3476722E+01  0.2699029E+01   0.0 
0.3478536E+01  0.2499417E+01   0.0 
0.3479694E+01  0.2299639E+01   0.0 
0.3480281E+01  0.2099757E+01   0.0 
0.3480610E+01  0.1899689E+01   0.0 
0.3480922E+01  0.1699386E+01   0.0 
0.3481250E+01  0.1498760E+01   0.0 
0.3481363E+01  0.1297568E+01   0.0 
0.3481036E+01  0.1095259E+01   0.0 
0.3481888E+01  0.8921609E+00   0.0 
0.3484878E+01  0.6907658E+00   0.0 
0.3498368E+01  0.5164385E+00   0.0 
0.3309610E+01  0.5625621E+00   0.0 
0.3095223E+01  0.5322718E+00   0.0 
0.2897896E+01  0.5260550E+00   0.0 
0.2698982E+01  0.5232539E+00   0.0 
0.2499383E+01  0.5214408E+00   0.0 
[...]
POINT_DATA     508
SCALARS scalars float 1
LOOKUP_TABLE default
0.7000000E+00
0.6316651E+00
0.6240000E+00
0.5279113E+00
0.5560000E+00
0.4612016E+00
0.4960000E+00
0.4041590E+00
0.4440000E+00
0.3552079E+00
0.4000000E+00
0.3146801E+00
0.3640000E+00
0.2826072E+00
0.3360000E+00
0.2586692E+00
0.3160000E+00
0.2427122E+00
0.3040000E+00
0.2347268E+00
0.3000000E+00
0.3040000E+00
0.2347375E+00
0.2427619E+00
0.3160000E+00
0.2588126E+00
0.3360000E+00
0.2829094E+00
0.3640000E+00
0.3150890E+00
0.4000000E+00
0.3553522E+00
0.4440000E+00
0.4035741E+00
0.4960000E+00
0.4600042E+00
0.5560000E+00
0.5268902E+00
0.6240000E+00
0.6315521E+00
0.7000000E+00
0.6240000E+00
0.5266788E+00
0.5560000E+00
0.4587316E+00
0.4960000E+00
0.4011530E+00
0.4440000E+00
0.3531145E+00
0.4000000E+00
0.3137681E+00
0.3640000E+00
0.2822575E+00
0.3360000E+00
0.2585183E+00
0.3160000E+00
0.2426427E+00
0.3040000E+00
0.2346987E+00
0.3000000E+00
0.3040000E+00
0.2347285E+00
0.2427596E+00
0.3160000E+00
0.2588120E+00
0.3360000E+00
0.2829092E+00
0.3640000E+00
0.3150891E+00
0.4000000E+00
0.3553524E+00
0.4440000E+00
0.4035742E+00
0.4960000E+00
0.4600043E+00
0.5560000E+00
0.5268902E+00
0.6240000E+00
0.6315521E+00
0.7000000E+00
0.6240000E+00
0.5266788E+00
0.5560000E+00
0.4587318E+00
0.4960000E+00
0.4011535E+00
0.4440000E+00
0.3531155E+00
0.4000000E+00
0.3137699E+00
0.3640000E+00
0.2822599E+00
0.3360000E+00
0.2585210E+00
0.3160000E+00
0.2426450E+00
0.3040000E+00
0.2347000E+00
0.3000000E+00
0.2347285E+00
0.3040000E+00
0.2427584E+00
0.3160000E+00
0.2588101E+00
0.3360000E+00
0.2829073E+00
0.3640000E+00
0.3150876E+00
0.4000000E+00
0.3553515E+00
0.4440000E+00
0.4035738E+00
0.4960000E+00
0.4600042E+00
0.5560000E+00
0.5268902E+00
0.6240000E+00
0.6315521E+00
0.7000000E+00
0.6240000E+00
0.5560000E+00
0.5266788E+00
0.4960000E+00
0.4587317E+00
0.4440000E+00
0.4011533E+00
0.4000000E+00
0.3531154E+00
0.3640000E+00
0.3137699E+00
0.3360000E+00
0.2822602E+00
0.3160000E+00
0.2585215E+00
0.3040000E+00
0.2426442E+00
0.3000000E+00
0.2346907E+00
0.3040000E+00
0.2346870E+00
0.3160000E+00
0.2426337E+00
0.3360000E+00
0.2585277E+00
0.3640000E+00
0.2824194E+00
0.4000000E+00
0.3145011E+00
0.4440000E+00
0.3550873E+00
0.4960000E+00
0.4041027E+00
0.5560000E+00
0.4611844E+00
0.6240000E+00
0.5279086E+00
0.5850629E+00
0.5845942E+00
0.5845942E+00
0.5845942E+00
0.4348290E+00
0.3736478E+00
0.3194716E+00
0.2735145E+00
0.2371375E+00
0.2092943E+00
0.1894239E+00
0.1774633E+00
0.1734756E+00
0.1775105E+00
0.1895900E+00
0.2097294E+00
0.2379783E+00
0.2744648E+00
0.3191288E+00
0.3711773E+00
0.4316317E+00
0.3669531E+00
0.3133298E+00
0.2709865E+00
0.2361986E+00
0.2088427E+00
0.1891799E+00
0.1773501E+00
0.1734347E+00
0.1774987E+00
0.1895869E+00
0.2097287E+00
0.2379785E+00
0.2744654E+00
0.3191295E+00
0.3711778E+00
0.4316320E+00
0.3669539E+00
0.3133319E+00
0.2709905E+00
0.2362049E+00
0.2088506E+00
0.1891879E+00
0.1773565E+00
0.1734377E+00
0.1774979E+00
0.1895832E+00
0.2097238E+00
0.2379741E+00
0.2744623E+00
0.3191278E+00
0.3711771E+00
0.4316317E+00
0.3669534E+00
0.3133311E+00
0.2709898E+00
0.2362049E+00
0.2088517E+00
0.1891891E+00
0.1773497E+00
0.1733919E+00
0.1773315E+00
0.1891473E+00
0.2088532E+00
0.2366452E+00
0.2731446E+00
0.3192929E+00
0.3735959E+00
0.3512342E+00
0.2948914E+00
0.2403578E+00
0.1992781E+00
0.1677956E+00
0.1441540E+00
0.1282408E+00
0.1202369E+00
0.1202620E+00
0.1283630E+00
0.1445442E+00
0.1687930E+00
0.2012078E+00
0.2423325E+00
0.2918963E+00
0.3446061E+00
0.2781296E+00
0.2353699E+00
0.1978633E+00
0.1669183E+00
0.1435288E+00
0.1279087E+00
0.1201044E+00
0.1202209E+00
0.1283524E+00
0.1445423E+00
0.1687941E+00
0.2012102E+00
0.2423350E+00
0.2918980E+00
0.3446070E+00
0.2781327E+00
0.2353764E+00
0.1978748E+00
0.1669350E+00
0.1435487E+00
0.1279279E+00
0.1201184E+00
0.1202267E+00
0.1283499E+00
0.1445343E+00
0.1687846E+00
0.2012024E+00
0.2423301E+00
0.2918957E+00
0.3446061E+00
0.2781305E+00
0.2353740E+00
0.1978731E+00
0.1669355E+00
0.1435521E+00
0.1279291E+00
0.1200894E+00
0.1200766E+00
0.1278712E+00
0.1434073E+00
0.1667579E+00
0.1983645E+00
0.2399094E+00
0.2947963E+00
0.2147167E+00
0.1678348E+00
0.1339244E+00
0.1069275E+00
0.8711541E-01
0.7505458E-01
0.7102299E-01
0.7511768E-01
0.8735508E-01
0.1076804E+00
0.1359336E+00
0.1722646E+00
0.2193767E+00
0.2068469E+00
0.1678591E+00
0.1328381E+00
0.1055642E+00
0.8630779E-01
0.7471683E-01
0.7091395E-01
0.7508971E-01
0.8735077E-01
0.1076840E+00
0.1359406E+00
0.1722722E+00
0.2193824E+00
0.2068554E+00
0.1678752E+00
0.1328653E+00
0.1056016E+00
0.8635001E-01
0.7475545E-01
0.7094042E-01
0.7509968E-01
0.8734610E-01
0.1076711E+00
0.1359266E+00
0.1722618E+00
0.2193767E+00
0.2068504E+00
0.1678699E+00
0.1328628E+00
0.1056054E+00
0.8635998E-01
0.7475483E-01
0.7085600E-01
0.7471819E-01
0.8621827E-01
0.1051939E+00
0.1319292E+00
0.1667284E+00
0.1377007E+00
0.1071852E+00
0.7784513E-01
0.5417945E-01
0.3797899E-01
0.2980775E-01
0.2982809E-01
0.3808100E-01
0.5455224E-01
0.7905247E-01
0.1107788E+00
0.1493976E+00
0.1072192E+00
0.7493790E-01
0.5244623E-01
0.3727424E-01
0.2958204E-01
0.2977203E-01
0.3807479E-01
0.5456228E-01
0.7906959E-01
0.1107973E+00
0.1494140E+00
0.1072535E+00
0.7499276E-01
0.5251738E-01
0.3735071E-01
0.2964865E-01
0.2981574E-01
0.3809098E-01
0.5455689E-01
0.7905400E-01
0.1107815E+00
0.1494037E+00
0.1072455E+00
0.7499347E-01
0.5253199E-01
0.3737558E-01
0.2964422E-01
0.2963123E-01
0.3730439E-01
0.5226288E-01
0.7410574E-01
0.1043115E+00
0.8848506E-01
0.5751790E-01
0.2960512E-01
0.9054657E-02
-.3347705E-02
-.7514865E-02
-.3320525E-02
0.9170707E-02
0.3005170E-01
0.5894273E-01
0.9211897E-01
0.5007206E-01
0.2613521E-01
0.7848568E-02
-.3710451E-02
-.7599058E-02
-.3323707E-02
0.9194529E-02
0.3008824E-01
0.5898167E-01
0.9215174E-01
0.5013490E-01
0.2622906E-01
0.7964448E-02
-.3590811E-02
-.7499437E-02
-.3260612E-02
0.9219565E-02
0.3008631E-01
0.5896842E-01
0.9213806E-01
0.5013042E-01
0.2624351E-01
0.8002624E-02
-.3540671E-02
-.7506026E-02
-.3567915E-02
0.7897248E-02
0.2587399E-01
0.4896274E-01
0.1382051E-01
-.1181134E-01
-.2835155E-01
-.3687548E-01
-.3687814E-01
-.2834780E-01
-.1173397E-01
0.1420007E-01
0.7218393E-02
-.1335265E-01
-.2877865E-01
-.3696939E-01
-.3687050E-01
-.2830266E-01
-.1166692E-01
0.1427332E-01
0.7320141E-02
-.1321554E-01
-.2861581E-01
-.3680865E-01
-.3674136E-01
-.2822210E-01
-.1163082E-01
0.1428026E-01
0.7335812E-02
-.1317264E-01
-.2854332E-01
-.3672966E-01
-.3674483E-01
-.2859233E-01
-.1329671E-01
0.7003287E-02
-.2537431E-01
-.4506356E-01
-.5799272E-01
-.6266116E-01
-.5802946E-01
-.4512075E-01
-.2539959E-01
-.4532962E-01
-.5808132E-01
-.6264980E-01
-.5796479E-01
-.4502085E-01
-.2527775E-01
-.4515752E-01
-.5788595E-01
-.6246540E-01
-.5782154E-01
-.4492962E-01
-.2522809E-01
-.4507516E-01
-.5778514E-01
-.6238266E-01
-.5783272E-01
-.4515763E-01
-.5403949E-01
-.7010254E-01
-.8031526E-01
-.8035831E-01
-.7021109E-01
-.5416959E-01
-.7022469E-01
-.8034389E-01
-.8029669E-01
-.7008725E-01
-.5402034E-01
-.7004547E-01
-.8015189E-01
-.8012097E-01
-.6995076E-01
-.5392474E-01
-.6993029E-01
-.8005796E-01
-.8010025E-01
-.7002940E-01
-.8916296E-01
-.9392038E-01
-.8929832E-01
-.9391140E-01
-.8916967E-01
-.9376851E-01
-.8904421E-01
-.9374220E-01
-.9871167E-01
-.9877013E-01
-.9871428E-01
-.9865691E-01
-.9999930E-01
